# Probe 0 (0 -1e-06 0)
# Probe 1 (0 -5e-06 0)
# Probe 2 (0 -2e-05 0)
# Probe 3 (0 -5e-05 0)
# Probe 4 (2.5e-05 -1e-06 0)
# Probe 5 (5e-05 -1e-06 0)
# Time          0               1               2               3               4               5              
2.2374884e-07   1267.1313       306.98505       300             300             432.72022       300.46618      
1.2157395e-06   3959.3808       638.05621       300.00059       300.00004       853.27366       302.18652      
2.2115975e-06   5880.3979       1252.2162       300.01622       300             1153.8306       303.77578      
3.2074555e-06   7464.0244       1906.5572       300.20836       299.99971       1372.6355       305.42783      
4.2033136e-06   8843.1538       3187.019        301.1299        299.99917       1560.9699       307.21812      
5.2e-06         10095.435       4647.8468       303.79048       299.99847       1518.3284       309.18911      
6.2e-06         11148.126       6529.3473       309.51834       299.99767       1834.0141       311.37401      
7.2e-06         11903.44        8349.5846       319.79968       299.99638       2035.4488       313.78693      
8.2e-06         12333.537       9699.1582       336.51665       299.99528       2146.146        316.44124      
9.2e-06         12532.487       10489.711       362.61914       299.99397       2247.5692       319.34723      
1.02e-05        12609.928       10886.97        403.51116       299.99259       2329.2358       322.51058      
1.12e-05        12634.219       11052.312       469.20323       299.99104       2425.8064       325.93325      
1.22e-05        12640.644       11112.85        577.00888       299.99024       2499.0845       329.61431      
1.32e-05        12642.113       11132.601       748.26792       299.98954       2554.4053       333.55105      
1.42e-05        12642.331       11136.219       1017.9766       299.99005       2620.7116       337.73836      
1.52e-05        12642.489       11132.308       1498.7326       299.99294       2672.5556       342.1688       
1.62e-05        12642.885       11126.326       2152.1853       299.99987       2713.3366       346.83353      
1.72e-05        12643.495       11120.072       3420.9228       300.01308       2752.8962       351.72307      
1.82e-05        12644.278       11114.587       4731.1724       300.03655       2785.7303       356.8274       
1.92e-05        12644.056       11109.101       5946.6302       300.07506       2821.3908       362.13634      
2.02e-05        12643.487       11103.782       6866.9602       300.13673       2860.8308       367.63826      
2.12e-05        12643.323       11099.106       7528.1854       300.23348       2892.924        373.32059      
2.22e-05        12644.462       11095.81        7974.1723       300.38085       2919.8785       379.1706       
2.32e-05        12646.891       11094.356       8267.0213       300.60222       2942.7086       385.17455      
2.42e-05        12649.977       11094.378       8454.95         300.92852       2966.0091       391.32073      
2.52e-05        12653.286       11095.449       8574.0631       301.40287       2989.3125       397.59899      
2.62e-05        12656.293       11096.967       8649.1721       302.08261       3011.776        404.00021      
2.72e-05        12659.101       11098.492       8696.719        303.04519       3031.9708       410.51523      
2.82e-05        12662.343       11100.378       8726.417        304.39134       3050.3687       417.13245      
2.92e-05        12666.045       11102.883       8744.9096       306.25144       3068.7712       423.83966      
3.02e-05        12669.724       11105.834       8756.5867       308.79302       3085.1319       430.62668      
3.12e-05        12673.016       11108.831       8764.2716       312.22831       3102.2364       437.4873       
3.22e-05        12675.7         11111.504       8769.6801       316.82219       3118.3523       444.41742      
3.32e-05        12678.057       11113.807       8773.6057       322.90781       3134.429        451.41117      
3.42e-05        12680.569       11116.082       8776.4284       330.89197       3147.9736       458.45633      
3.52e-05        12683.336       11118.479       8778.974        341.28511       3159.6785       465.54289      
3.62e-05        12686.613       11121.245       8781.0493       354.68981       3172.0372       472.66531      
3.72e-05        12690.167       11124.51        8782.967        371.86931       3184.7985       479.81842      
3.82e-05        12693.408       11127.864       8785.182        393.7226        3197.1538       487.00101      
3.92e-05        12696.097       11130.877       8787.7784       421.34366       3209.9097       494.21368      
4.02e-05        12698.376       11133.42        8790.885        456.12525       3222.1846       501.45386      
4.12e-05        12700.563       11135.709       8794.0658       499.34538       3234.4246       508.7147       
4.22e-05        12702.755       11137.933       8797.3682       553.81646       3244.1695       515.98829      
4.32e-05        12704.872       11140.064       8800.7446       619.73785       3251.1856       523.26928      
4.42e-05        12706.912       11142.142       8803.9344       703.89871       3257.4729       530.54939      
4.52e-05        12708.593       11144.03        8807.2997       802.86882       3265.0303       537.82183      
4.62e-05        12709.715       11145.483       8810.7464       928.94558       3272.6639       545.08943      
4.72e-05        12710.397       11146.461       8814.0759       1083.6178       3280.3759       552.35724      
4.82e-05        12710.796       11147.066       8817.3994       1262.43         3288.7505       559.62352      
4.92e-05        12711.167       11147.472       8820.3793       1523.9756       3297.4115       566.88599      
5.02e-05        11644.369       11034.394       8822.9493       1621.7084       3167.8266       573.62142      
5.12e-05        8637.2548       9168.422        8793.6316       2148.3111       2854.2908       579.11925      
5.22e-05        6878.5328       7376.9695       8450.1572       2689.1298       2690.2548       584.71947      
5.32e-05        5829.7313       6201.2504       7717.8851       3217.3068       2582.3302       590.23431      
5.42e-05        5165.343        5440.9447       6917.0002       3708.7085       2502.6917       595.60668      
5.52e-05        4714.34         4925.6406       6231.4781       4181.2538       2439.9147       600.81959      
5.62e-05        4388.6559       4556.7311       5687.706        4531.5557       2388.8568       605.8794       
5.72e-05        4141.0941       4279.2271       5261.5256       4735.1857       2346.9808       610.79746      
5.82e-05        3944.9363       4061.5975       4923.6112       4818.9306       2310.481        615.57252      
5.92e-05        3784.2238       3884.9675       4650.4592       4806.7514       2275.841        620.20006      
6.02e-05        3648.9588       3737.5405       4425.0365       4727.9492       2243.1053       624.67236      
6.12e-05        3532.6068       3611.6429       4235.3187       4610.5373       2212.4795       628.98259      
6.22e-05        3430.729        3502.0971       4072.7889       4475.0223       2183.9129       633.13174      
6.32e-05        3340.2029       3405.2905       3931.3794       4333.1423       2157.5236       637.12863      
6.42e-05        3258.7667       3318.6239       3806.6798       4191.0025       2133.1571       640.9854       
6.52e-05        3184.7474       3240.1839       3695.4249       4051.7981       2110.4952       644.71353      
6.62e-05        3116.8903       3168.5378       3595.157        3917.722        2089.9551       648.32332      
6.72e-05        3054.239        3102.5959       3503.9918       3789.9547       2071.559        651.82636      
6.82e-05        2996.0521       3041.5167       3420.47         3668.6479       2055.1006       655.23546      
6.92e-05        2941.746        2984.6398       3343.4434       3553.3474       2040.7903       658.56116      
7.02e-05        2890.8551       2931.44         3271.9984       3444.0178       2025.2411       661.80893      
7.12e-05        2843.0014       2881.493        3205.4004       3340.6294       2007.0607       664.98167      
7.22e-05        2797.8708       2834.451        3143.0537       3242.7608       1988.6174       668.08081      
7.32e-05        2755.1907       2790.017        3084.466        3150.021        1970.9678       671.10348      
7.42e-05        2714.7188       2747.9333       3029.2311       3062.0484       1953.7358       674.04729      
7.52e-05        2676.2395       2707.9714       2977.0075       2978.5558       1937.3844       676.90948      
7.62e-05        2639.5655       2669.9307       2927.503        2899.2678       1921.5521       679.68471      
7.72e-05        2604.5384       2633.6386       2880.4663       2823.905        1906.4989       682.3649       
7.82e-05        2571.0272       2598.9504       2835.68         2752.1891       1893.0067       684.94389      
7.92e-05        2538.9229       2565.745        2792.9556       2683.8015       1882.9584       687.4211       
8.02e-05        2508.1316       2533.919        2752.1267       2618.1195       1877.7212       689.80181      
8.12e-05        2478.5703       2503.3812       2713.0505       2554.9719       1866.8136       692.09455      
8.22e-05        2450.165        2474.0505       2675.5952       2494.0978       1852.7604       694.30837      
8.32e-05        2422.8549       2445.8598       2639.6514       2435.707        1836.9336       696.45102      
8.42e-05        2396.5835       2418.7473       2605.1168       2379.4668       1821.9982       698.52627      
8.52e-05        2371.2972       2392.6565       2571.9013       2325.8526       1808.4885       700.53617      
8.62e-05        2346.9427       2367.5319       2539.9256       2274.5107       1796.9995       702.48092      
8.72e-05        2323.4696       2343.3224       2509.1159       2225.553        1787.4433       704.36181      
8.82e-05        2300.8291       2319.978        2479.4092       2178.8234       1779.9876       706.18107      
8.92e-05        2278.9754       2297.4522       2450.75         2133.7836       1776.6943       707.94139      
9.02e-05        2257.8674       2275.7025       2423.0882       2089.4857       1781.1591       709.64545      
9.12e-05        2237.4709       2254.6903       2396.3664       2047.1558       1767.1308       711.29436      
9.22e-05        2217.7616       2234.3868       2370.5428       2007.8035       1755.3521       712.88679      
9.32e-05        2198.7212       2214.7674       2345.5725       1972.9121       1736.8046       714.42069      
9.42e-05        2180.332        2195.8124       2321.4136       1940.6335       1721.8838       715.89293      
9.52e-05        2162.5737       2177.5015       2298.0257       1905.5494       1709.1971       717.30139      
9.62e-05        2145.4199       2159.8115       2275.3783       1871.6619       1702.044        718.64534      
9.72e-05        2128.8387       2142.7128       2253.442        1842.6738       1681.9071       719.92522      
9.82e-05        2112.7985       2126.1745       2232.18         1821.3043       1542.1821       721.14263      
9.92e-05        2097.2766       2110.1711       2211.5676       1812.0003       1525.7495       722.3012       
