# Probe 0 (0 -1e-06 0)
# Probe 1 (0 -5e-06 0)
# Probe 2 (0 -2e-05 0)
# Probe 3 (0 -5e-05 0)
# Probe 4 (2.5e-05 -1e-06 0)
# Probe 5 (5e-05 -1e-06 0)
# Time          0               1               2               3               4               5              
2.2374884e-07   (-4.9635747e-25 -9.0624504e-28 -4.3030749e-25) (-5.0116308e-25 2.4314926e-26 -4.3452029e-25) (-5.0422429e-25 -1.3631005e-26 -4.3614068e-25) (-5.2296531e-25 -2.4685868e-25 -4.5743929e-25) (-4.5710975e-25 -6.6422822e-27 -4.2752065e-25) (-4.3167098e-25 6.9899715e-27 -3.6642424e-25)
1.2157395e-06   (0.00075720406 -0.01817367 0.00075720402) (-0.00011840397 -0.0014986108 -0.00011840397) (-8.7646924e-06 -0.00013152188 -8.7646924e-06) (-2.4463791e-07 -6.5479838e-06 -2.4463791e-07) (-0.00013352985 2.3293476e-05 7.5085809e-06) (-5.1388817e-06 3.4687289e-07 1.0870256e-07)
2.2115975e-06   (0.052264118 -0.29824464 0.052264118) (-0.00014899808 -0.00072245491 -0.00014899808) (-1.6492864e-05 -0.00028481902 -1.6492864e-05) (-6.4097905e-07 -1.7780244e-05 -6.4097908e-07) (-0.00056333617 0.00014567386 -4.5668887e-05) (-1.6536044e-05 1.1633992e-06 3.9289089e-07)
3.2074555e-06   (0.14845835 -0.76384103 0.14845835) (-0.021402727 -0.0047791268 -0.021402727) (-2.092187e-05 -0.00036307806 -2.092187e-05) (-8.4644303e-07 -2.380625e-05 -8.4644302e-07) (-0.00091497856 0.00026056437 5.3694715e-05) (-2.2382335e-05 1.6615294e-06 4.0723585e-07)
4.2033136e-06   (0.31791826 -1.2483342 0.31791826) (-0.14517578 -0.059419198 -0.14517578) (-2.4739534e-05 -0.00044010109 -2.4739534e-05) (-1.0720463e-06 -3.0483374e-05 -1.0720463e-06) (-5.86051e-05 0.00088970993 -0.00012254397) (-3.2301912e-05 2.3757887e-06 7.3116333e-07)
5.2e-06         (0.55238837 -1.7926437 0.55238837) (-0.27351713 -0.67808699 -0.27351713) (-2.6584811e-05 -0.00046088404 -2.6584811e-05) (-1.1176183e-06 -3.202286e-05 -1.1176183e-06) (-2.138303e-05 0.0012236595 1.7442638e-05) (-3.5236119e-05 2.6573462e-06 7.8269965e-07)
6.2e-06         (0.87453241 -2.4051361 0.87453241) (-0.31770298 -2.1314437 -0.31770298) (-3.6732762e-05 -0.00054760407 -3.6732762e-05) (-1.1965707e-06 -3.4221212e-05 -1.1965707e-06) (0.012634952 0.070454647 -0.0048091105) (-3.6052096e-05 2.8287991e-06 6.0811229e-07)
7.2e-06         (1.2087491 -2.9549134 1.2087491) (-0.20985703 -3.531265 -0.20985703) (-3.5736935e-05 -0.00052533048 -3.5736935e-05) (-1.1243313e-06 -3.2308817e-05 -1.1243313e-06) (-0.0047507352 0.15090172 -0.0049465934) (-3.2139258e-05 2.5888399e-06 4.5812671e-07)
8.2e-06         (1.4666386 -3.3411591 1.4666386) (-0.044268579 -4.6418584 -0.044268579) (-6.3357712e-05 -0.0007441649 -6.3357712e-05) (-1.2447657e-06 -3.5145319e-05 -1.2447657e-06) (-0.043416818 0.57898681 -0.012533598) (-3.9723011e-05 3.1843881e-06 9.1838598e-07)
9.2e-06         (1.623176 -3.5693722 1.623176) (0.10415322 -5.4580116 0.10415322) (-0.00010765038 -0.0010517706 -0.00010765038) (-1.4840501e-06 -4.1529906e-05 -1.4840501e-06) (-0.046332973 0.67059854 0.0008668426) (-4.6878215e-05 3.7288721e-06 1.0437944e-06)
1.02e-05        (1.7041856 -3.6901589 1.7041856) (0.1956749 -5.9833753 0.1956749) (-0.00010962246 -0.0011437934 -0.00010962246) (-1.6417519e-06 -4.5439768e-05 -1.6417519e-06) (-0.22700563 0.54091352 0.0058899694) (-5.3152613e-05 4.14072e-06 1.3960234e-06)
1.12e-05        (1.744984 -3.7527182 1.744984) (0.26845631 -6.2929462 0.26845631) (-0.00014772976 -0.0014718205 -0.00014772976) (-1.7211847e-06 -4.6526317e-05 -1.7211847e-06) (-0.44778823 0.46625228 0.016700113) (-4.9636779e-05 3.8796371e-06 1.1177718e-06)
1.22e-05        (1.7637798 -3.7827308 1.7637798) (0.3111083 -6.4830736 0.3111083) (-0.00048066441 -0.0028077815 -0.00048066441) (-1.7591024e-06 -4.694205e-05 -1.7591024e-06) (-0.56825771 0.47672988 0.011138751) (-4.7053475e-05 3.8146194e-06 9.1509297e-07)
1.32e-05        (1.772953 -3.7985159 1.772953) (0.33842004 -6.6072344 0.33842004) (-0.00039525088 -0.0025936526 -0.00039525088) (-2.0009257e-06 -5.2830296e-05 -2.0009257e-06) (-0.61819259 0.50182017 0.024928046) (-5.2655202e-05 4.3269289e-06 9.9364448e-07)
1.42e-05        (1.7777476 -3.8077903 1.7777476) (0.35719486 -6.6950607 0.35719486) (-0.0017502005 -0.0029187719 -0.0017502005) (-2.3216795e-06 -5.9973794e-05 -2.3216794e-06) (-0.6491437 0.50726126 0.038521633) (-5.5584965e-05 4.5621898e-06 4.8241306e-07)
1.52e-05        (1.7804247 -3.8133424 1.7804247) (0.37328652 -6.7622844 0.37328652) (-0.0017833762 -0.0012122795 -0.0017833762) (-2.5272704e-06 -6.3519168e-05 -2.5272704e-06) (-0.77690738 0.46506728 0.043995415) (-5.117062e-05 4.2806807e-06 6.5510118e-07)
1.62e-05        (1.7824398 -3.8171296 1.7824398) (0.38493808 -6.812688 0.38493808) (-0.21717452 0.070266783 -0.21717452) (-2.8056894e-06 -6.9743249e-05 -2.8056894e-06) (-0.95299525 0.40230398 0.0508894) (-5.6087717e-05 4.6439431e-06 1.0880504e-06)
1.72e-05        (1.7837784 -3.8187666 1.7837784) (0.39369026 -6.84743 0.39369026) (-0.48399749 -0.070241237 -0.48399749) (-3.0907063e-06 -7.6119566e-05 -3.0907063e-06) (-1.0809764 0.39291195 0.055844707) (-5.7313512e-05 4.8539849e-06 1.171686e-06)
1.82e-05        (1.7851866 -3.8205644 1.7851866) (0.40083294 -6.8769655 0.40083294) (-0.61929476 -1.1483973 -0.61929476) (-3.6177254e-06 -8.3953903e-05 -3.6177254e-06) (-1.1590405 0.39294603 0.057122952) (-5.0272203e-05 4.3477826e-06 2.642712e-07)
1.92e-05        (1.7860099 -3.8217806 1.7860099) (0.40643181 -6.8981465 0.40643181) (-0.57291353 -2.643524 -0.57291353) (-3.7651574e-06 -8.8589014e-05 -3.7651574e-06) (-1.197497 0.39514752 0.061078381) (-5.3309411e-05 4.4034002e-06 -3.7061686e-08)
2.02e-05        (1.786466 -3.8223778 1.786466) (0.41086854 -6.9147938 0.41086854) (-0.47698881 -3.6354696 -0.47698881) (-4.7273499e-06 -0.0001046301 -4.7273499e-06) (-1.2235849 0.38342473 0.067188297) (-6.189476e-05 5.1428309e-06 5.4532353e-07)
2.12e-05        (1.7865813 -3.8221747 1.7865813) (0.41438778 -6.9270655 0.41438778) (-0.37399448 -4.3942501 -0.37399448) (-4.6935338e-06 -0.00010424113 -4.6935338e-06) (-1.2704252 0.38285794 0.068490166) (-6.3931049e-05 5.2952212e-06 6.7257534e-07)
2.22e-05        (1.786467 -3.8211219 1.786467) (0.41703471 -6.9343188 0.41703471) (-0.3049964 -4.9684581 -0.3049964) (-5.2226378e-06 -0.00011494167 -5.2226378e-06) (-1.3315807 0.37580623 0.069518872) (-7.0613944e-05 5.8034993e-06 1.3524354e-06)
2.32e-05        (1.7866222 -3.8202601 1.7866222) (0.41924927 -6.9401496 0.41924927) (-0.24654321 -5.4559542 -0.24654321) (-6.2738158e-06 -0.00013271316 -6.2738158e-06) (-1.4067678 0.36387655 0.07339208) (-7.362516e-05 5.7473805e-06 2.184538e-06)
2.42e-05        (1.7869189 -3.8196788 1.7869189) (0.4209592 -6.9442941 0.4209592) (-0.20612781 -5.8418482 -0.20612781) (-7.2040539e-06 -0.00014545345 -7.2040539e-06) (-1.4617783 0.36027577 0.078893352) (-7.7956602e-05 6.1751565e-06 2.2094079e-06)
2.52e-05        (1.7872793 -3.8195277 1.7872793) (0.42226767 -6.9480163 0.42226767) (-0.17166379 -6.1678327 -0.17166379) (-8.1403533e-06 -0.00016469662 -8.1403533e-06) (-1.4983357 0.35654761 0.082459191) (-7.8676084e-05 6.3042253e-06 1.9278259e-06)
2.62e-05        (1.787753 -3.8199786 1.787753) (0.42342744 -6.9529272 0.42342744) (-0.14558689 -6.4366685 -0.14558689) (-8.5677095e-06 -0.00016600295 -8.5677095e-06) (-1.5460845 0.33156852 0.085526376) (-8.0187856e-05 6.4649803e-06 2.0474313e-06)
2.72e-05        (1.7878349 -3.8199656 1.7878349) (0.42414409 -6.9558378 0.42414409) (-0.1233108 -6.661352 -0.1233108) (-8.9976842e-06 -0.00017770446 -8.9976842e-06) (-1.5947834 0.30978077 0.091017478) (-8.9939445e-05 7.1517438e-06 2.3680107e-06)
2.82e-05        (1.7876079 -3.8196461 1.7876079) (0.42458988 -6.9579578 0.42458988) (-0.10591844 -6.8429954 -0.10591844) (-1.2409757e-05 -0.00022322665 -1.2409757e-05) (-1.6333789 0.3024784 0.095151703) (-9.3110486e-05 7.35074e-06 2.4563905e-06)
2.92e-05        (1.7872676 -3.8194635 1.7872676) (0.42483681 -6.959956 0.42483681) (-0.091043363 -6.9992362 -0.091043363) (-1.1763641e-05 -0.00021262355 -1.1763641e-05) (-1.6703574 0.29675861 0.096876501) (-9.100055e-05 7.2619514e-06 2.4272738e-06)
3.02e-05        (1.7870448 -3.8196414 1.7870448) (0.42496375 -6.9621029 0.42496375) (-0.078676724 -7.1306194 -0.078676724) (-1.4069878e-05 -0.00023686673 -1.4069878e-05) (-1.7071309 0.29570827 0.097173263) (-8.8469248e-05 7.1454149e-06 2.0208995e-06)
3.12e-05        (1.7870649 -3.8201543 1.7870649) (0.42509819 -6.9647569 0.42509819) (-0.068393453 -7.2399367 -0.068393453) (-1.6720044e-05 -0.00027239802 -1.6720044e-05) (-1.737363 0.29709774 0.098194944) (-9.3642025e-05 7.5931329e-06 2.0390611e-06)
3.22e-05        (1.7872481 -3.8207839 1.7872481) (0.42526687 -6.9674239 0.42526687) (-0.059733667 -7.3333491 -0.059733667) (-2.2230173e-05 -0.00034026372 -2.2230173e-05) (-1.7624361 0.29480876 0.1002409) (-9.9460669e-05 7.9525614e-06 2.3971195e-06)
3.32e-05        (1.7873808 -3.8211645 1.7873808) (0.42537959 -6.9694342 0.42537959) (-0.052131316 -7.414214 -0.052131316) (-2.3640916e-05 -0.00034711488 -2.3640916e-05) (-1.786343 0.28957302 0.10233087) (-9.3682639e-05 7.5104453e-06 1.975199e-06)
3.42e-05        (1.7874307 -3.8213849 1.7874307) (0.425495 -6.971534 0.425495) (-0.045821829 -7.4822048 -0.045821829) (-2.4242679e-05 -0.0003571693 -2.4242679e-05) (-1.8246425 0.27799268 0.10377914) (-8.7862517e-05 7.0018947e-06 1.6176318e-06)
3.52e-05        (1.7872723 -3.8213781 1.7872723) (0.42553694 -6.9729694 0.42553694) (-0.040398301 -7.5418389 -0.040398301) (-2.9885007e-05 -0.00041861974 -2.9885007e-05) (-1.860579 0.26993668 0.1070492) (-9.4020069e-05 7.4537929e-06 1.7670601e-06)
3.62e-05        (1.7868586 -3.8211294 1.7868586) (0.42540838 -6.9734331 0.42540838) (-0.035866154 -7.58872 -0.035866154) (-3.1901255e-05 -0.0004479374 -3.1901255e-05) (-1.8868148 0.26690899 0.11037168) (-9.1168234e-05 7.2262469e-06 1.6848432e-06)
3.72e-05        (1.7864923 -3.8212276 1.7864923) (0.42528609 -6.9745431 0.42528609) (-0.032016328 -7.6302837 -0.032016328) (-4.8347982e-05 -0.00056563714 -4.8347982e-05) (-1.9103169 0.26424058 0.11269975) (-8.8124322e-05 7.0530729e-06 1.2168887e-06)
3.82e-05        (1.7862964 -3.821701 1.7862964) (0.42520863 -6.9762004 0.42520863) (-0.028720899 -7.6651236 -0.028720899) (-5.7704326e-05 -0.00067421532 -5.7704326e-05) (-1.9285653 0.2629761 0.11421701) (-8.8271359e-05 7.1052377e-06 1.2553567e-06)
3.92e-05        (1.7862795 -3.8223292 1.7862795) (0.42525208 -6.9784025 0.42525208) (-0.025883609 -7.6954275 -0.025883609) (-5.2153477e-05 -0.00060965089 -5.2153477e-05) (-1.9432928 0.2616228 0.11530839) (-8.6591607e-05 6.9419925e-06 1.117446e-06)
4.02e-05        (1.786314 -3.8227745 1.786314) (0.42534397 -6.9802493 0.42534397) (-0.023351802 -7.7223261 -0.023351802) (-7.124823e-05 -0.00076618276 -7.124823e-05) (-1.9565607 0.25842746 0.11708096) (-8.6236378e-05 6.9827873e-06 1.120732e-06)
4.12e-05        (1.7863921 -3.8230301 1.7863921) (0.42546831 -6.9817501 0.42546831) (-0.021357943 -7.742987 -0.021357943) (-8.8972756e-05 -0.00090481835 -8.8972756e-05) (-1.9685554 0.25509389 0.11931492) (-9.4414627e-05 7.6616979e-06 1.965183e-06)
4.22e-05        (1.7865898 -3.8233194 1.7865898) (0.42567536 -6.9835387 0.42567536) (-0.019644691 -7.7630115 -0.019644691) (-0.00012366183 -0.0011810283 -0.00012366183) (-1.9975834 0.24232512 0.11990423) (-0.00010193927 8.2663309e-06 2.4755562e-06)
4.32e-05        (1.7867988 -3.8235392 1.7867988) (0.42585864 -6.984898 0.42585864) (-0.018040082 -7.7803142 -0.018040082) (-0.00010316902 -0.0010904821 -0.00010316902) (-2.0313808 0.23334473 0.12098328) (-0.00011164885 8.9817261e-06 3.0988931e-06)
4.42e-05        (1.7869961 -3.8238272 1.7869961) (0.42602681 -6.9863765 0.42602681) (-0.016800562 -7.7937305 -0.016800563) (-0.0003238799 -0.0021837685 -0.0003238799) (-2.0611656 0.22815218 0.12325739) (-0.0001044963 8.7069435e-06 2.5301146e-06)
4.52e-05        (1.7871729 -3.8243472 1.7871729) (0.42621011 -6.9883634 0.42621011) (-0.015651263 -7.8080408 -0.015651263) (-0.00040966368 -0.002550972 -0.00040966368) (-2.0850551 0.22685988 0.1247043) (-0.00010573926 8.9178982e-06 2.7960915e-06)
4.62e-05        (1.7872288 -3.8249306 1.7872288) (0.4263485 -6.9903879 0.4263485) (-0.014788152 -7.8188374 -0.014788152) (-0.00026177341 -0.0020369178 -0.00026177341) (-2.1045254 0.22496052 0.12552764) (-0.00011217697 9.2620683e-06 2.9784543e-06)
4.72e-05        (1.7871586 -3.8254285 1.7871586) (0.42646992 -6.9923801 0.42646992) (-0.014058663 -7.8286234 -0.014058663) (-0.0009310221 -0.0014467323 -0.0009310221) (-2.1185358 0.22362906 0.12574771) (-0.0001116766 9.189175e-06 2.961504e-06)
4.82e-05        (1.7870471 -3.8258354 1.7870471) (0.42662635 -6.9943322 0.42662635) (-0.013336116 -7.8398777 -0.013336116) (-0.00017213847 -0.0013893914 -0.00017213847) (-2.1295538 0.22327013 0.12580752) (-0.00010864317 8.9535073e-06 2.9685234e-06)
4.92e-05        (1.7868736 -3.8259695 1.7868736) (0.42674844 -6.995498 0.42674844) (-0.012787387 -7.8474353 -0.012787387) (-0.00079109415 -0.00092174908 -0.00079109415) (-2.1380255 0.22214225 0.12605936) (-0.00012067529 1.0045372e-05 3.3170891e-06)
5.02e-05        (1.7799487 -3.8041665 1.7799487) (0.42805465 -6.9797016 0.42805465) (-0.01221887 -7.8524675 -0.01221887) (-0.0024129022 -0.00020756791 -0.0024129022) (-2.1345742 0.21483622 0.12614003) (-0.0001011185 8.2570252e-06 2.2368948e-06)
5.12e-05        (1.6205133 -3.4171786 1.6205133) (0.43203786 -6.5494164 0.43203786) (-0.0077388176 -7.8125466 -0.0077388177) (-0.15551555 0.019265667 -0.15551555) (-1.9782845 0.17555717 0.11857054) (-8.3398337e-05 6.6993013e-06 1.87347e-06)
5.22e-05        (1.3579279 -2.8673945 1.3579279) (0.39761387 -5.7573391 0.39761387) (0.0065513546 -7.6195194 0.0065513546) (-0.29431308 -0.027798022 -0.29431308) (-1.8076433 0.13676421 0.10956355) (-7.4287177e-05 5.9529773e-06 1.6919303e-06)
5.32e-05        (1.1180673 -2.3902697 1.1180673) (0.34412792 -4.9740347 0.34412792) (0.024436271 -7.1892716 0.024436271) (-0.40559308 -0.17058183 -0.40559308) (-1.6692277 0.10933571 0.1019053) (-6.3040797e-05 5.0672669e-06 1.6698029e-06)
5.42e-05        (0.93135064 -2.0220078 0.93135064) (0.29415163 -4.3271379 0.29415163) (0.032782866 -6.6176926 0.032782866) (-0.44323591 -0.91507936 -0.44323591) (-1.5627056 0.091364098 0.095302281) (-5.402722e-05 4.388847e-06 1.3979637e-06)
5.52e-05        (0.79147402 -1.7438936 0.79147402) (0.253664 -3.8186261 0.253664) (0.034743883 -6.0316502 0.034743883) (-0.425634 -1.6467594 -0.425634) (-1.479326 0.080732849 0.090195976) (-4.7841068e-05 3.8197144e-06 1.1334691e-06)
5.62e-05        (0.68651627 -1.5322665 0.68651627) (0.22213363 -3.4211861 0.22213363) (0.03391925 -5.4941072 0.03391925) (-0.39748608 -2.1287601 -0.39748608) (-1.4034011 0.079159937 0.08568132) (-4.5917345e-05 3.6862168e-06 1.2266725e-06)
5.72e-05        (0.60654208 -1.3685207 0.60654208) (0.19766384 -3.1075914 0.19766384) (0.032022678 -5.024065 0.032022678) (-0.34229014 -2.4318285 -0.34229014) (-1.3334544 0.081074315 0.083161945) (-3.5387556e-05 2.8075051e-06 3.9498233e-07)
5.82e-05        (0.54440705 -1.2393832 0.54440705) (0.17846516 -2.8563689 0.17846516) (0.029684699 -4.6189213 0.029684699) (-0.28336817 -2.6279738 -0.28336817) (-1.2732632 0.081028823 0.081624552) (-3.4892726e-05 2.8119738e-06 4.7542368e-07)
5.92e-05        (0.49518542 -1.1356284 0.49518542) (0.16318372 -2.6519115 0.16318372) (0.027217493 -4.2715198 0.027217493) (-0.24050806 -2.7079499 -0.24050806) (-1.2281191 0.075403124 0.079387087) (-3.668985e-05 2.8467628e-06 6.9560267e-07)
6.02e-05        (0.45545608 -1.0507624 0.45545608) (0.15082979 -2.4828324 0.15082979) (0.024772171 -3.9732326 0.024772171) (-0.21028788 -2.7145369 -0.21028788) (-1.1949003 0.070798546 0.076474985) (-3.1844959e-05 2.5741182e-06 6.3523984e-07)
6.12e-05        (0.42282158 -0.98019337 0.42282158) (0.14069173 -2.340908 0.14069173) (0.022423981 -3.7162704 0.022423981) (-0.18349208 -2.6755101 -0.18349208) (-1.166168 0.068671401 0.073244537) (-3.7397892e-05 3.1247105e-06 9.9989559e-07)
6.22e-05        (0.3955811 -0.92063125 0.3955811) (0.13225346 -2.2201137 0.13225346) (0.020227686 -3.4939177 0.020227686) (-0.15954151 -2.6203841 -0.15954151) (-1.1401744 0.067941048 0.069836189) (-3.1312815e-05 2.6068717e-06 6.1300938e-07)
6.32e-05        (0.37249611 -0.86967132 0.37249611) (0.12511681 -2.1158811 0.12511681) (0.018143549 -3.299439 0.018143549) (-0.14081203 -2.5462931 -0.14081203) (-1.1158454 0.070448189 0.064992739) (-2.9976438e-05 2.4735726e-06 5.8805891e-07)
6.42e-05        (0.35267739 -0.82556081 0.35267739) (0.1190011 -2.0249175 0.1190011) (0.016190407 -3.1284304 0.016190407) (-0.12708643 -2.4531032 -0.12708643) (-1.0875169 0.073361741 0.060859803) (-3.1117022e-05 2.5950729e-06 5.8550786e-07)
6.52e-05        (0.33544596 -0.78693048 0.33544596) (0.11368718 -1.9445746 0.11368718) (0.014375309 -2.9769957 0.014375309) (-0.11622482 -2.3550019 -0.11622482) (-1.0627747 0.075909152 0.056292559) (-2.8825244e-05 2.3446665e-06 7.9806499e-07)
6.62e-05        (0.3202951 -0.752735 0.3202951) (0.10902087 -1.8729228 0.10902087) (0.012707685 -2.8422644 0.012707685) (-0.10785482 -2.2520847 -0.10785482) (-1.0303758 0.079987124 0.053531459) (-2.9546504e-05 2.3825621e-06 8.5937005e-07)
6.72e-05        (0.30682555 -0.72213586 0.30682555) (0.10488042 -1.8083459 0.10488042) (0.011182448 -2.7215886 0.011182448) (-0.10062342 -2.1552833 -0.10062342) (-0.99892436 0.084400868 0.047184382) (-2.4543832e-05 1.9119615e-06 5.3019598e-07)
6.82e-05        (0.29472174 -0.69447641 0.29472174) (0.10116622 -1.7495786 0.10116622) (0.0097845483 -2.6128388 0.0097845483) (-0.094856557 -2.0533681 -0.094856557) (-0.94962402 0.091634024 0.043885891) (-1.7337929e-05 1.4052572e-06 -1.8246133e-07)
6.92e-05        (0.28374555 -0.66924781 0.28374555) (0.097808593 -1.6956651 0.097808593) (0.0085138157 -2.514409 0.0085138155) (-0.08983121 -1.9526754 -0.089831209) (-0.89175596 0.10321411 0.043975262) (-2.3088724e-05 1.7954029e-06 4.1268383e-07)
7.02e-05        (0.27371279 -0.64603858 0.27371279) (0.094754399 -1.6457991 0.094754399) (0.0073733768 -2.4247582 0.0073733768) (-0.085661987 -1.8546635 -0.085661986) (-0.83927115 0.10516815 0.050432945) (-2.2439705e-05 1.722633e-06 3.9933524e-07)
7.12e-05        (0.26446328 -0.62452129 0.26446328) (0.09194619 -1.5993121 0.09194619) (0.00634598 -2.3426468 0.00634598) (-0.082112862 -1.7612508 -0.082112862) (-0.80551216 0.099593758 0.051823578) (-2.1554491e-05 1.640464e-06 4.0561879e-07)
7.22e-05        (0.25588889 -0.60446404 0.25588889) (0.089350553 -1.5557761 0.089350553) (0.0054218083 -2.2671166 0.0054218082) (-0.078999715 -1.6732267 -0.078999715) (-0.77885136 0.096559543 0.050663178) (-2.1128805e-05 1.6259151e-06 3.5449815e-07)
7.32e-05        (0.24790087 -0.58569786 0.24790087) (0.086929708 -1.5147884 0.086929707) (0.004596037 -2.1972502 0.004596037) (-0.076202918 -1.590716 -0.076202917) (-0.75728296 0.095750865 0.048657223) (-2.3227843e-05 1.8389033e-06 4.7591152e-07)
7.42e-05        (0.24043083 -0.56809353 0.24043083) (0.084650855 -1.4760216 0.084650855) (0.0038619724 -2.1322497 0.0038619723) (-0.07364694 -1.5135351 -0.07364694) (-0.73884195 0.095233267 0.046405735) (-1.7357001e-05 1.3986799e-06 1.1010629e-07)
7.52e-05        (0.23341965 -0.55153781 0.23341965) (0.082487286 -1.4391875 0.082487286) (0.0032137735 -2.0714499 0.0032137734) (-0.07128266 -1.4413954 -0.07128266) (-0.71682993 0.097548063 0.042658738) (-1.9631205e-05 1.472441e-06 4.3816492e-07)
7.62e-05        (0.22683878 -0.53597249 0.22683878) (0.080433629 -1.4042449 0.080433629) (0.0026387999 -2.0143994 0.0026387999) (-0.069078327 -1.3739379 -0.069078327) (-0.6976251 0.098051072 0.038748173) (-1.9447874e-05 1.4716394e-06 4.2052079e-07)
7.72e-05        (0.22063598 -0.52128708 0.22063598) (0.078475695 -1.3709903 0.078475695) (0.0021304208 -1.9606355 0.0021304207) (-0.067011325 -1.3107848 -0.067011324) (-0.67974806 0.10012228 0.03511402) (-1.7998658e-05 1.3461004e-06 3.6353637e-07)
7.82e-05        (0.21474831 -0.50733651 0.21474831) (0.076593801 -1.3390903 0.076593801) (0.0016733567 -1.9094802 0.0016733566) (-0.064929708 -1.2488989 -0.064929708) (-0.65517865 0.10506106 0.029495948) (-1.5973912e-05 1.150228e-06 6.69156e-08)
7.92e-05        (0.20914981 -0.49405777 0.20914981) (0.074795022 -1.3085584 0.074795022) (0.0012704118 -1.8609761 0.0012704118) (-0.063528475 -1.1844751 -0.063528475) (-0.61815935 0.11386871 0.02164613) (-2.0739019e-05 1.6144534e-06 5.5116886e-07)
8.02e-05        (0.20377923 -0.4813149 0.20377923) (0.073050972 -1.2790087 0.073050971) (0.00090552236 -1.8142426 0.00090552233) (-0.06237666 -1.1194575 -0.06237666) (-0.57083511 0.12610601 0.012258947) (-1.5415921e-05 1.117272e-06 1.7287307e-07)
8.12e-05        (0.19863468 -0.46910173 0.19863468) (0.071374829 -1.250564 0.071374829) (0.00052660332 -1.7690265 0.00052660328) (-0.061758815 -1.0472254 -0.061758815) (-0.50323538 0.13619732 0.031308317) (-1.8196859e-05 1.2480858e-06 3.0012385e-07)
8.22e-05        (0.19366883 -0.45730996 0.19366883) (0.06974252 -1.2228975 0.06974252) (0.00021468015 -1.7256385 0.00021468012) (-0.060439883 -0.98797294 -0.060439883) (-0.46397413 0.13031625 0.035908962) (-1.8436088e-05 1.2506098e-06 3.8425329e-07)
8.32e-05        (0.18886086 -0.44587903 0.18886086) (0.068146867 -1.1959074 0.068146867) (-9.1366454e-05 -1.6830959 -9.1366481e-05) (-0.058950661 -0.92884192 -0.058950661) (-0.43836385 0.12708236 0.034206057) (-1.6586256e-05 1.1035088e-06 3.5814214e-07)
8.42e-05        (0.18421062 -0.43480926 0.18421062) (0.066597751 -1.1696737 0.066597751) (-0.00039181774 -1.6418142 -0.00039181777) (-0.058566435 -0.8654472 -0.058566435) (-0.42218451 0.12603001 0.031196562) (-1.6441488e-05 1.1523721e-06 3.8653002e-07)
8.52e-05        (0.17969143 -0.42404751 0.17969143) (0.065075505 -1.1439779 0.065075505) (-0.00067652232 -1.6010513 -0.00067652234) (-0.058373203 -0.79599189 -0.058373203) (-0.40655334 0.13041502 0.024727494) (-1.5147481e-05 1.0564431e-06 3.0575021e-07)
8.62e-05        (0.17533601 -0.41366854 0.17533601) (0.063609151 -1.11916 0.063609151) (-0.00091606672 -1.5621416 -0.00091606674) (-0.058218732 -0.73335079 -0.058218732) (-0.39112312 0.1329863 0.019401254) (-1.5758497e-05 1.0736847e-06 3.1174635e-07)
8.72e-05        (0.17109833 -0.40358157 0.17109833) (0.062164655 -1.0948084 0.062164655) (-0.0011657015 -1.5239277 -0.0011657015) (-0.058345231 -0.6725988 -0.058345231) (-0.37085344 0.14042591 0.016080312) (-1.5419373e-05 1.0447092e-06 3.4777619e-07)
8.82e-05        (0.16697985 -0.39379338 0.16697985) (0.060743843 -1.0709806 0.060743843) (-0.001419317 -1.4864052 -0.001419317) (-0.058343869 -0.61416799 -0.058343869) (-0.34411834 0.1436126 0.015491258) (-1.4384738e-05 9.3756191e-07 3.2594719e-07)
8.92e-05        (0.16295325 -0.38424215 0.16295325) (0.05932332 -1.0474111 0.05932332) (-0.0016576231 -1.4487683 -0.0016576231) (-0.058897101 -0.55103585 -0.058897101) (-0.33377223 0.13984479 -0.0023812741) (-1.4516205e-05 9.2528246e-07 3.378024e-07)
9.02e-05        (0.1590665 -0.37502208 0.1590665) (0.057958536 -1.0246536 0.057958536) (-0.0018578441 -1.4132071 -0.0018578441) (-0.058431455 -0.49690667 -0.058431455) (-0.2581133 0.15428732 -0.0094538223) (-1.4170622e-05 9.1976903e-07 1.7836969e-07)
9.12e-05        (0.15525756 -0.36599806 0.15525756) (0.056596877 -1.0021273 0.056596877) (-0.0020462054 -1.3779349 -0.0020462054) (-0.057534321 -0.43769956 -0.057534321) (-0.1048635 0.16357556 0.023207528) (-1.463922e-05 1.0792684e-06 3.6472337e-07)
9.22e-05        (0.15154841 -0.35718834 0.15154841) (0.055272938 -0.98013551 0.055272938) (-0.0022531225 -1.3432049 -0.0022531225) (-0.056228923 -0.38190615 -0.056228923) (-0.022824635 0.15040502 0.019807349) (-1.2819593e-05 8.4021022e-07 2.2492522e-07)
9.32e-05        (0.14792932 -0.34857492 0.14792932) (0.053980498 -0.95862101 0.053980498) (-0.0024703002 -1.3087926 -0.0024703002) (-0.056728009 -0.33216593 -0.056728009) (-0.022320282 0.14707638 0.017321386) (-1.3357843e-05 9.1885477e-07 2.435499e-07)
9.42e-05        (0.14435785 -0.34006962 0.14435785) (0.052701906 -0.93728987 0.052701906) (-0.0026470212 -1.2752072 -0.0026470212) (-0.057191052 -0.27880774 -0.057191052) (-0.021824674 0.15633138 0.0030470541) (-1.2625308e-05 8.549808e-07 2.0590997e-07)
9.52e-05        (0.14087068 -0.33175206 0.14087068) (0.051465678 -0.91647852 0.051465678) (-0.0028418244 -1.242532 -0.0028418244) (-0.054838998 -0.2294837 -0.054838998) (-0.0216853 0.15861783 -0.0019869551) (-1.1241902e-05 7.2701885e-07 2.4150686e-07)
9.62e-05        (0.13739094 -0.32348081 0.13739094) (0.05020186 -0.89546455 0.05020186) (-0.0030176366 -1.2092703 -0.0030176367) (-0.05076789 -0.18068809 -0.05076789) (-0.019596816 0.18112695 0.0016881799) (-1.2349456e-05 7.8053516e-07 3.0779509e-07)
9.72e-05        (0.13399848 -0.31543311 0.13399848) (0.048969245 -0.87493888 0.048969245) (-0.0032067822 -1.1767875 -0.0032067822) (-0.047219284 -0.12458454 -0.047219284) (-0.011626733 0.17885573 -0.086321798) (-1.1574407e-05 8.4206653e-07 2.1226104e-07)
9.82e-05        (0.13069679 -0.30760749 0.13069679) (0.047767228 -0.85489009 0.047767228) (-0.0033549103 -1.1456549 -0.0033549103) (-0.044646118 -0.058547638 -0.044646118) (5.3522698e-05 0.00028482836 -0.00035288739) (-8.8314963e-06 6.0722913e-07 1.3728995e-07)
9.92e-05        (0.12740208 -0.29983056 0.12740208) (0.046528422 -0.83457712 0.046528422) (-0.0035087276 -1.1135498 -0.0035087277) (-0.03644088 -0.010918012 -0.03644088) (0.0002459481 0.00070990845 0.00015940447) (-9.5538939e-06 5.9071797e-07 1.6073648e-07)
